# vtk DataFile Version 3.0
vtk output
ASCII
DATASET UNSTRUCTURED_GRID
FIELD FieldData 1
avtOriginalBounds 1 6 double
0 1 0 1 0 1 
POINTS 1331 float
0.1 0 0.1 0.1 0 0.2 0.2 0 0.1 
0.1 0 0.3 0.2 0 0.2 0.3 0 0.1 
0.1 0 0.4 0.2 0 0.3 0.4 0 0.1 
0.3 0 0.2 0.1 0 0.5 0.2 0 0.4 
0.3 0 0.3 0.4 0 0.2 0.5 0 0.1 
0.2 0 0.5 0.3 0 0.4 0.1 0 0.6 
0.5 0 0.2 0.4 0 0.3 0.6 0 0.1 
0.2 0 0.6 0.1 0 0.7 0.4 0 0.4 
0.3 0 0.5 0.7 0 0.1 0.5 0 0.3 
0.6 0 0.2 0.2 0 0.7 0.3 0 0.6 
0.4 0 0.5 0.1 0 0.8 0.5 0 0.4 
0.8 0 0.1 0.7 0 0.2 0.6 0 0.3 
0.4 0 0.6 0.5 0 0.5 0.3 0 0.7 
0.2 0 0.8 0.8 0 0.2 0.6 0 0.4 
0.1 0 0.9 0.7 0 0.3 0.9 0 0.1 
0.5 0 0.6 0.6 0 0.5 0.4 0 0.7 
0.3 0 0.8 0.7 0 0.4 0.9 0 0.2 
0.2 0 0.9 0.8 0 0.3 0.5 0 0.7 
0.4 0 0.8 0.7 0 0.5 0.3 0 0.9 
0.6 0 0.6 0.9 0 0.3 0.8 0 0.4 
0.6 0 0.7 0.8 0 0.5 0.4 0 0.9 
0.5 0 0.8 0.7 0 0.6 0.9 0 0.4 
0.7 0 0.7 0.5 0 0.9 0.9 0 0.5 
0.6 0 0.8 0.8 0 0.6 0.6 0 0.9 
0.9 0 0.6 0.7 0 0.8 0.8 0 0.7 
0.8 0 0.8 0.7 0 0.9 0.9 0 0.7 
0.9 0 0.8 0.8 0 0.9 0.9 0 0.9 
0 0 0.1 1.11022e-16 0 0 0.1 0 0 
0 0 0.2 0.2 0 0 0 0 0.3 
0.3 0 0 0 0 0.4 0.4 0 0 
0 0 0.5 0.5 0 0 0 0 0.6 
0.6 0 0 0 0 0.7 0.7 0 0 
0 0 0.8 0.8 0 0 0 0 0.9 
0.9 0 0 1 0 1.11022e-16 1 0 0.1 
0.1 0 1 0 0 1 1 0 0.2 
0.2 0 1 1 0 0.3 0.3 0 1 
0.4 0 1 1 0 0.4 0.5 0 1 
1 0 0.5 0.6 0 1 1 0 0.6 
1 0 0.7 0.7 0 1 0.8 0 1 
1 0 0.8 1 0 0.9 0.9 0 1 
1 1.11022e-16 1 0.1 0.1 0 0.1 0.2 0 
0.2 0.1 0 0.3 0.1 0 0.2 0.2 0 
0.1 0.3 0 0.3 0.2 0 0.2 0.3 0 
0.1 0.4 0 0.4 0.1 0 0.1 0.5 0 
0.2 0.4 0 0.3 0.3 0 0.4 0.2 0 
0.5 0.1 0 0.2 0.5 0 0.3 0.4 0 
0.6 0.1 0 0.1 0.6 0 0.4 0.3 0 
0.5 0.2 0 0.4 0.4 0 0.7 0.1 0 
0.3 0.5 0 0.2 0.6 0 0.6 0.2 0 
0.5 0.3 0 0.1 0.7 0 0.8 0.1 0 
0.4 0.5 0 0.7 0.2 0 0.2 0.7 0 
0.3 0.6 0 0.5 0.4 0 0.1 0.8 0 
0.6 0.3 0 0.8 0.2 0 0.2 0.8 0 
0.3 0.7 0 0.5 0.5 0 0.4 0.6 0 
0.9 0.1 0 0.6 0.4 0 0.7 0.3 0 
0.1 0.9 0 0.5 0.6 0 0.3 0.8 0 
0.4 0.7 0 0.7 0.4 0 0.9 0.2 0 
0.2 0.9 0 0.6 0.5 0 0.8 0.3 0 
0.4 0.8 0 0.3 0.9 0 0.6 0.6 0 
0.7 0.5 0 0.8 0.4 0 0.5 0.7 0 
0.9 0.3 0 0.5 0.8 0 0.8 0.5 0 
0.4 0.9 0 0.9 0.4 0 0.7 0.6 0 
0.6 0.7 0 0.5 0.9 0 0.7 0.7 0 
0.6 0.8 0 0.9 0.5 0 0.8 0.6 0 
0.9 0.6 0 0.6 0.9 0 0.7 0.8 0 
0.8 0.7 0 0.8 0.8 0 0.9 0.7 0 
0.7 0.9 0 0.9 0.8 0 0.8 0.9 0 
0.9 0.9 0 0 0.1 0 0 0.2 0 
0 0.3 0 0 0.4 0 0 0.5 0 
0 0.6 0 0 0.7 0 0 0.8 0 
0 0.9 0 1 0.1 0 0 1 1.11022e-16 
0.1 1 0 0.2 1 0 1 0.2 0 
0.3 1 0 1 0.3 0 0.4 1 0 
1 0.4 0 0.5 1 0 1 0.5 0 
0.6 1 0 1 0.6 0 0.7 1 0 
1 0.7 0 1 0.8 0 0.8 1 0 
0.9 1 0 1 0.9 0 1 1 0 
0 0.1 0.1 0 0.1 0.2 0 0.2 0.1 
0 0.1 0.3 0 0.2 0.2 0 0.3 0.1 
0 0.1 0.4 0 0.2 0.3 0 0.3 0.2 
0 0.4 0.1 0 0.1 0.5 0 0.2 0.4 
0 0.3 0.3 0 0.4 0.2 0 0.5 0.1 
0 0.2 0.5 0 0.1 0.6 0 0.3 0.4 
0 0.5 0.2 0 0.4 0.3 0 0.6 0.1 
0 0.2 0.6 0 0.4 0.4 0 0.1 0.7 
0 0.5 0.3 0 0.3 0.5 0 0.6 0.2 
0 0.7 0.1 0 0.2 0.7 0 0.3 0.6 
0 0.5 0.4 0 0.4 0.5 0 0.6 0.3 
0 0.1 0.8 0 0.7 0.2 0 0.8 0.1 
0 0.4 0.6 0 0.5 0.5 0 0.3 0.7 
0 0.7 0.3 0 0.6 0.4 0 0.2 0.8 
0 0.8 0.2 0 0.1 0.9 0 0.9 0.1 
0 0.3 0.8 0 0.6 0.5 0 0.2 0.9 
0 0.7 0.4 0 0.4 0.7 0 0.5 0.6 
0 0.8 0.3 0 0.9 0.2 0 0.6 0.6 
0 0.8 0.4 0 0.4 0.8 0 0.3 0.9 
0 0.7 0.5 0 0.5 0.7 0 0.9 0.3 
0 0.7 0.6 0 0.8 0.5 0 0.4 0.9 
0 0.5 0.8 0 0.9 0.4 0 0.6 0.7 
0 0.5 0.9 0 0.7 0.7 0 0.9 0.5 
0 0.6 0.8 0 0.8 0.6 0 0.9 0.6 
0 0.8 0.7 0 0.6 0.9 0 0.7 0.8 
0 0.8 0.8 0 0.9 0.7 0 0.7 0.9 
0 0.8 0.9 0 0.9 0.8 0 1 0.1 
0 0.9 0.9 0 1 0.2 0 0.1 1 
0 1 0.3 0 0.2 1 0 1 0.4 
0 0.3 1 0 1 0.5 0 0.4 1 
0 1 0.6 0 0.5 1 0 1 0.7 
0 0.6 1 0 1 0.8 0 0.7 1 
0 1 0.9 0 1 1 0.1 1 0.1 
0.1 1 0.2 0.2 1 0.1 0.3 1 0.1 
0.2 1 0.2 0.1 1 0.3 0.1 1 0.4 
0.3 1 0.2 0.4 1 0.1 0.2 1 0.3 
0.2 1 0.4 0.1 1 0.5 0.4 1 0.2 
0.3 1 0.3 0.5 1 0.1 0.2 1 0.5 
0.1 1 0.6 0.4 1 0.3 0.3 1 0.4 
0.5 1 0.2 0.6 1 0.1 0.5 1 0.3 
0.7 1 0.1 0.3 1 0.5 0.6 1 0.2 
0.1 1 0.7 0.4 1 0.4 0.2 1 0.6 
0.4 1 0.5 0.2 1 0.7 0.6 1 0.3 
0.8 1 0.1 0.1 1 0.8 0.7 1 0.2 
0.3 1 0.6 0.5 1 0.4 0.5 1 0.5 
0.4 1 0.6 0.3 1 0.7 0.6 1 0.4 
0.8 1 0.2 0.1 1 0.9 0.9 1 0.1 
0.7 1 0.3 0.2 1 0.8 0.3 1 0.8 
0.6 1 0.5 0.8 1 0.3 0.7 1 0.4 
0.9 1 0.2 0.5 1 0.6 0.2 1 0.9 
0.4 1 0.7 0.6 1 0.6 0.8 1 0.4 
0.4 1 0.8 0.3 1 0.9 0.7 1 0.5 
0.5 1 0.7 0.9 1 0.3 0.4 1 0.9 
0.8 1 0.5 0.7 1 0.6 0.5 1 0.8 
0.9 1 0.4 0.6 1 0.7 0.5 1 0.9 
0.7 1 0.7 0.9 1 0.5 0.6 1 0.8 
0.8 1 0.6 0.9 1 0.6 0.8 1 0.7 
0.6 1 0.9 0.7 1 0.8 0.8 1 0.8 
0.9 1 0.7 0.7 1 0.9 0.8 1 0.9 
0.9 1 0.8 0.9 1 0.9 0.1 1 1 
1 1 0.1 1 1 0.2 0.2 1 1 
0.3 1 1 1 1 0.3 1 1 0.4 
0.4 1 1 1 1 0.5 0.5 1 1 
0.6 1 1 1 1 0.6 0.7 1 1 
1 1 0.7 1 1 0.8 0.8 1 1 
1 1 0.9 0.9 1 1 1 1 1 
1 0.1 0.1 1 0.1 0.2 1 0.2 0.1 
1 0.1 0.3 1 0.2 0.2 1 0.3 0.1 
1 0.3 0.2 1 0.1 0.4 1 0.4 0.1 
1 0.2 0.3 1 0.3 0.3 1 0.2 0.4 
1 0.4 0.2 1 0.1 0.5 1 0.5 0.1 
1 0.5 0.2 1 0.1 0.6 1 0.6 0.1 
1 0.2 0.5 1 0.3 0.4 1 0.4 0.3 
1 0.2 0.6 1 0.7 0.1 1 0.5 0.3 
1 0.6 0.2 1 0.1 0.7 1 0.3 0.5 
1 0.4 0.4 1 0.5 0.4 1 0.7 0.2 
1 0.8 0.1 1 0.1 0.8 1 0.2 0.7 
1 0.6 0.3 1 0.3 0.6 1 0.4 0.5 
1 0.9 0.1 1 0.8 0.2 1 0.1 0.9 
1 0.3 0.7 1 0.7 0.3 1 0.4 0.6 
1 0.2 0.8 1 0.5 0.5 1 0.6 0.4 
1 0.9 0.2 1 0.8 0.3 1 0.3 0.8 
1 0.2 0.9 1 0.4 0.7 1 0.5 0.6 
1 0.7 0.4 1 0.6 0.5 1 0.9 0.3 
1 0.8 0.4 1 0.4 0.8 1 0.5 0.7 
1 0.3 0.9 1 0.6 0.6 1 0.7 0.5 
1 0.9 0.4 1 0.6 0.7 1 0.5 0.8 
1 0.4 0.9 1 0.7 0.6 1 0.8 0.5 
1 0.9 0.5 1 0.8 0.6 1 0.5 0.9 
1 0.6 0.8 1 0.7 0.7 1 0.6 0.9 
1 0.9 0.6 1 0.7 0.8 1 0.8 0.7 
1 0.7 0.9 1 0.9 0.7 1 0.8 0.8 
1 0.9 0.8 1 0.8 0.9 1 0.9 0.9 
1 0.1 1 1 0.2 1 1 0.3 1 
1 0.4 1 1 0.5 1 1 0.6 1 
1 0.7 1 1 0.8 1 1 0.9 1 
0 0.8 1 0 0.9 1 0.1 0.1 1 
0.1 0.2 1 0.2 0.1 1 0.1 0.3 1 
0.3 0.1 1 0.2 0.2 1 0.3 0.2 1 
0.4 0.1 1 0.1 0.4 1 0.2 0.3 1 
0.2 0.4 1 0.4 0.2 1 0.1 0.5 1 
0.5 0.1 1 0.3 0.3 1 0.1 0.6 1 
0.2 0.5 1 0.5 0.2 1 0.3 0.4 1 
0.4 0.3 1 0.6 0.1 1 0.1 0.7 1 
0.2 0.6 1 0.4 0.4 1 0.3 0.5 1 
0.6 0.2 1 0.7 0.1 1 0.5 0.3 1 
0.2 0.7 1 0.1 0.8 1 0.3 0.6 1 
0.8 0.1 1 0.4 0.5 1 0.7 0.2 1 
0.6 0.3 1 0.5 0.4 1 0.5 0.5 1 
0.1 0.9 1 0.2 0.8 1 0.4 0.6 1 
0.3 0.7 1 0.9 0.1 1 0.8 0.2 1 
0.7 0.3 1 0.6 0.4 1 0.3 0.8 1 
0.2 0.9 1 0.4 0.7 1 0.6 0.5 1 
0.5 0.6 1 0.7 0.4 1 0.8 0.3 1 
0.9 0.2 1 0.3 0.9 1 0.9 0.3 1 
0.8 0.4 1 0.5 0.7 1 0.6 0.6 1 
0.7 0.5 1 0.4 0.8 1 0.5 0.8 1 
0.9 0.4 1 0.4 0.9 1 0.6 0.7 1 
0.7 0.6 1 0.8 0.5 1 0.6 0.8 1 
0.5 0.9 1 0.9 0.5 1 0.7 0.7 1 
0.8 0.6 1 0.8 0.7 1 0.7 0.8 1 
0.6 0.9 1 0.9 0.6 1 0.7 0.9 1 
0.8 0.8 1 0.9 0.7 1 0.8 0.9 1 
0.9 0.8 1 0.9 0.9 1 0.1 0.1 0.1 
0.1 0.2 0.1 0.1 0.1 0.2 0.1 0.3 0.1 
0.1 0.2 0.2 0.1 0.1 0.3 0.1 0.4 0.1 
0.1 0.3 0.2 0.1 0.2 0.3 0.1 0.1 0.4 
0.1 0.5 0.1 0.1 0.4 0.2 0.1 0.3 0.3 
0.1 0.2 0.4 0.1 0.1 0.5 0.1 0.6 0.1 
0.1 0.5 0.2 0.1 0.4 0.3 0.1 0.3 0.4 
0.1 0.2 0.5 0.1 0.1 0.6 0.1 0.6 0.2 
0.1 0.7 0.1 0.1 0.5 0.3 0.1 0.4 0.4 
0.1 0.3 0.5 0.1 0.2 0.6 0.1 0.1 0.7 
0.1 0.7 0.2 0.1 0.6 0.3 0.1 0.8 0.1 
0.1 0.5 0.4 0.1 0.4 0.5 0.1 0.3 0.6 
0.1 0.2 0.7 0.1 0.1 0.8 0.1 0.8 0.2 
0.1 0.7 0.3 0.1 0.6 0.4 0.1 0.9 0.1 
0.1 0.5 0.5 0.1 0.4 0.6 0.1 0.3 0.7 
0.1 0.2 0.8 0.1 0.1 0.9 0.1 0.9 0.2 
0.1 0.8 0.3 0.1 0.7 0.4 0.1 0.6 0.5 
0.1 0.5 0.6 0.1 0.4 0.7 0.1 0.3 0.8 
0.1 0.2 0.9 0.1 0.9 0.3 0.1 0.8 0.4 
0.1 0.7 0.5 0.1 0.6 0.6 0.1 0.5 0.7 
0.1 0.4 0.8 0.1 0.3 0.9 0.1 0.9 0.4 
0.1 0.8 0.5 0.1 0.7 0.6 0.1 0.6 0.7 
0.1 0.5 0.8 0.1 0.4 0.9 0.1 0.9 0.5 
0.1 0.8 0.6 0.1 0.7 0.7 0.1 0.6 0.8 
0.1 0.5 0.9 0.1 0.9 0.6 0.1 0.8 0.7 
0.1 0.7 0.8 0.1 0.6 0.9 0.1 0.9 0.7 
0.1 0.8 0.8 0.1 0.7 0.9 0.1 0.9 0.8 
0.1 0.8 0.9 0.1 0.9 0.9 0.2 0.1 0.1 
0.2 0.2 0.1 0.2 0.1 0.2 0.2 0.3 0.1 
0.2 0.2 0.2 0.2 0.1 0.3 0.2 0.4 0.1 
0.2 0.3 0.2 0.2 0.2 0.3 0.2 0.1 0.4 
0.2 0.5 0.1 0.2 0.4 0.2 0.2 0.3 0.3 
0.2 0.2 0.4 0.2 0.1 0.5 0.2 0.6 0.1 
0.2 0.5 0.2 0.2 0.4 0.3 0.2 0.3 0.4 
0.2 0.2 0.5 0.2 0.1 0.6 0.2 0.6 0.2 
0.2 0.7 0.1 0.2 0.5 0.3 0.2 0.4 0.4 
0.2 0.3 0.5 0.2 0.2 0.6 0.2 0.1 0.7 
0.2 0.7 0.2 0.2 0.6 0.3 0.2 0.8 0.1 
0.2 0.5 0.4 0.2 0.4 0.5 0.2 0.3 0.6 
0.2 0.2 0.7 0.2 0.1 0.8 0.2 0.8 0.2 
0.2 0.7 0.3 0.2 0.6 0.4 0.2 0.9 0.1 
0.2 0.5 0.5 0.2 0.4 0.6 0.2 0.3 0.7 
0.2 0.2 0.8 0.2 0.1 0.9 0.2 0.9 0.2 
0.2 0.8 0.3 0.2 0.7 0.4 0.2 0.6 0.5 
0.2 0.5 0.6 0.2 0.4 0.7 0.2 0.3 0.8 
0.2 0.2 0.9 0.2 0.9 0.3 0.2 0.8 0.4 
0.2 0.7 0.5 0.2 0.6 0.6 0.2 0.5 0.7 
0.2 0.4 0.8 0.2 0.3 0.9 0.2 0.9 0.4 
0.2 0.8 0.5 0.2 0.7 0.6 0.2 0.6 0.7 
0.2 0.5 0.8 0.2 0.4 0.9 0.2 0.9 0.5 
0.2 0.8 0.6 0.2 0.7 0.7 0.2 0.6 0.8 
0.2 0.5 0.9 0.2 0.9 0.6 0.2 0.8 0.7 
0.2 0.7 0.8 0.2 0.6 0.9 0.2 0.9 0.7 
0.2 0.8 0.8 0.2 0.7 0.9 0.2 0.9 0.8 
0.2 0.8 0.9 0.2 0.9 0.9 0.3 0.1 0.1 
0.3 0.2 0.1 0.3 0.1 0.2 0.3 0.3 0.1 
0.3 0.2 0.2 0.3 0.1 0.3 0.3 0.4 0.1 
0.3 0.3 0.2 0.3 0.2 0.3 0.3 0.1 0.4 
0.3 0.5 0.1 0.3 0.4 0.2 0.3 0.3 0.3 
0.3 0.2 0.4 0.3 0.1 0.5 0.3 0.6 0.1 
0.3 0.5 0.2 0.3 0.4 0.3 0.3 0.3 0.4 
0.3 0.2 0.5 0.3 0.1 0.6 0.3 0.6 0.2 
0.3 0.7 0.1 0.3 0.5 0.3 0.3 0.4 0.4 
0.3 0.3 0.5 0.3 0.2 0.6 0.3 0.1 0.7 
0.3 0.7 0.2 0.3 0.6 0.3 0.3 0.8 0.1 
0.3 0.5 0.4 0.3 0.4 0.5 0.3 0.3 0.6 
0.3 0.2 0.7 0.3 0.1 0.8 0.3 0.8 0.2 
0.3 0.7 0.3 0.3 0.6 0.4 0.3 0.9 0.1 
0.3 0.5 0.5 0.3 0.4 0.6 0.3 0.3 0.7 
0.3 0.2 0.8 0.3 0.1 0.9 0.3 0.9 0.2 
0.3 0.8 0.3 0.3 0.7 0.4 0.3 0.6 0.5 
0.3 0.5 0.6 0.3 0.4 0.7 0.3 0.3 0.8 
0.3 0.2 0.9 0.3 0.9 0.3 0.3 0.8 0.4 
0.3 0.7 0.5 0.3 0.6 0.6 0.3 0.5 0.7 
0.3 0.4 0.8 0.3 0.3 0.9 0.3 0.9 0.4 
0.3 0.8 0.5 0.3 0.7 0.6 0.3 0.6 0.7 
0.3 0.5 0.8 0.3 0.4 0.9 0.3 0.9 0.5 
0.3 0.8 0.6 0.3 0.7 0.7 0.3 0.6 0.8 
0.3 0.5 0.9 0.3 0.9 0.6 0.3 0.8 0.7 
0.3 0.7 0.8 0.3 0.6 0.9 0.3 0.9 0.7 
0.3 0.8 0.8 0.3 0.7 0.9 0.3 0.9 0.8 
0.3 0.8 0.9 0.3 0.9 0.9 0.4 0.1 0.1 
0.4 0.2 0.1 0.4 0.1 0.2 0.4 0.3 0.1 
0.4 0.2 0.2 0.4 0.1 0.3 0.4 0.4 0.1 
0.4 0.3 0.2 0.4 0.2 0.3 0.4 0.1 0.4 
0.4 0.5 0.1 0.4 0.4 0.2 0.4 0.3 0.3 
0.4 0.2 0.4 0.4 0.1 0.5 0.4 0.6 0.1 
0.4 0.5 0.2 0.4 0.4 0.3 0.4 0.3 0.4 
0.4 0.2 0.5 0.4 0.1 0.6 0.4 0.6 0.2 
0.4 0.7 0.1 0.4 0.5 0.3 0.4 0.4 0.4 
0.4 0.3 0.5 0.4 0.2 0.6 0.4 0.1 0.7 
0.4 0.7 0.2 0.4 0.6 0.3 0.4 0.8 0.1 
0.4 0.5 0.4 0.4 0.4 0.5 0.4 0.3 0.6 
0.4 0.2 0.7 0.4 0.1 0.8 0.4 0.8 0.2 
0.4 0.7 0.3 0.4 0.6 0.4 0.4 0.9 0.1 
0.4 0.5 0.5 0.4 0.4 0.6 0.4 0.3 0.7 
0.4 0.2 0.8 0.4 0.1 0.9 0.4 0.9 0.2 
0.4 0.8 0.3 0.4 0.7 0.4 0.4 0.6 0.5 
0.4 0.5 0.6 0.4 0.4 0.7 0.4 0.3 0.8 
0.4 0.2 0.9 0.4 0.9 0.3 0.4 0.8 0.4 
0.4 0.7 0.5 0.4 0.6 0.6 0.4 0.5 0.7 
0.4 0.4 0.8 0.4 0.3 0.9 0.4 0.9 0.4 
0.4 0.8 0.5 0.4 0.7 0.6 0.4 0.6 0.7 
0.4 0.5 0.8 0.4 0.4 0.9 0.4 0.9 0.5 
[...]
CELL_DATA 1000
POINT_DATA 1331
FIELD FieldData 1
E 3 1331 float
-20000 1.44377e-05 4.50087e-05 -20000 2.16098e-05 0.000115786 -20000 4.12825e-05 0.000107442 
-20000 2.55816e-05 0.000166151 -20000 5.39275e-05 0.000240898 -20000 7.4288e-05 0.000175617 
-20000 2.66772e-05 0.000184307 -20000 5.73897e-05 0.000316308 -20000 9.45212e-05 0.000216746 
-20000 8.69298e-05 0.000351867 -20000 2.99236e-05 0.000191355 -20000 5.72993e-05 0.000339229 
-20000 8.39354e-05 0.000417865 -20000 0.000103545 0.000414682 -20000 8.95112e-05 0.000203095 
-20000 5.81147e-05 0.000340514 -20000 8.67661e-05 0.000437684 -20000 3.9257e-05 0.000193624 
-20000 0.000103967 0.000393548 -20000 8.61599e-05 0.00045385 -20000 6.6128e-05 0.000171719 
-20000 7.0544e-05 0.000330464 -20000 3.95293e-05 0.000161542 -20000 9.44685e-05 0.000441838 
-20000 8.24497e-05 0.000447514 -20000 6.04252e-05 0.000184865 -20000 7.92205e-05 0.000450146 
-20000 8.27998e-05 0.000312018 -20000 7.93521e-05 0.000289012 -20000 7.61e-05 0.00040378 
-20000 0.000109191 0.000473906 -20000 3.0954e-05 8.92617e-05 -20000 7.15461e-05 0.000434548 
-20000 6.49187e-05 0.000220417 -20000 4.87903e-05 0.000262502 -20000 8.95385e-05 0.00039809 
-20000 9.47958e-05 0.000439807 -20000 9.82175e-05 0.000463751 -20000 8.93277e-05 0.000337446 
-20000 6.21032e-05 0.000156209 -20000 4.29245e-06 0.000256115 -20000 7.14414e-05 0.000438088 
-20000 4.25559e-05 2.78893e-05 -20000 9.29801e-05 0.000329675 -20000 4.56889e-05 0.00018496 
-20000 9.89214e-05 0.000436955 -20000 8.1416e-05 0.000459061 -20000 9.50155e-05 0.000335393 
-20000 8.15084e-05 0.000189119 -20000 9.04519e-05 0.00040098 -20000 -2.37449e-05 0.000207603 
-20000 6.48586e-05 2.05467e-05 -20000 3.20742e-05 0.000244146 -20000 9.38974e-05 0.000290284 
-20000 0.000100523 0.000162159 -20000 8.5477e-05 0.000384289 -20000 8.3866e-05 1.23288e-05 
-20000 8.57718e-05 0.000407366 -20000 -3.0912e-05 0.000128035 -20000 3.42168e-05 0.00028409 
-20000 8.79466e-05 0.000243588 -20000 1.93605e-05 0.000234599 -20000 0.000135211 -1.57022e-05 
-20000 0.000114711 6.1946e-05 -20000 9.24882e-05 0.000279283 -20000 -3.34377e-05 0.000109723 
-20000 0.000122204 0.000137201 -20000 0.000200296 -9.67674e-05 -20000 -4.53099e-05 0.000104011 
-20000 0.000132935 -4.05183e-05 -20000 2.16992e-05 8.96858e-05 -20000 0.000297358 -0.000198514 
-20000 -6.36881e-05 9.28834e-05 -20000 0.000252871 -0.000173862 -20000 4.74967e-05 -8.09498e-05 
-20000 0.000219415 -0.000529538 -20000 0.000632667 -0.000339291 -20000 -0.000102394 5.68278e-05 
-20000 -5.21776e-05 -0.000427372 -20000 0.000753452 -0.000696974 -20000 0.000311096 -0.000724763 
-20000 4.6617e-06 1.89107e-05 -20000 2.9086e-06 2.90861e-06 -20000 1.03205e-05 1.03205e-05 
-20000 8.06244e-06 5.48743e-05 -20000 3.23578e-05 3.23578e-05 -20000 1.06483e-05 8.37359e-05 
-20000 6.13814e-05 6.13814e-05 -20000 1.19532e-05 9.53975e-05 -20000 7.97258e-05 7.97259e-05 
-20000 1.41289e-05 0.000100531 -20000 7.92892e-05 7.92893e-05 -20000 1.84255e-05 0.000102199 
-20000 8.45544e-05 8.45544e-05 -20000 1.82797e-05 8.86847e-05 -20000 0.000118888 0.000118888 
-20000 1.91474e-05 6.34597e-05 -20000 0.000142412 0.000142412 -20000 3.15686e-05 3.33814e-05 
-20000 0.000104333 0.000104333 -20000 6.74168e-05 6.74168e-05 -20000 3.03393e-05 0.000135533 
-20000 5.67395e-05 7.61498e-06 -20000 4.04885e-05 1.5717e-05 -20000 -2.20866e-05 0.000160315 
-20000 8.18896e-05 -1.83122e-05 -20000 -3.93617e-05 7.52224e-05 -20000 0.000103744 -4.47427e-05 
-20000 0.000173808 -6.83122e-05 -20000 -4.27981e-05 3.25956e-05 -20000 0.000264703 -0.000112265 
-20000 -4.87777e-05 6.51506e-05 -20000 0.000414324 -0.000170575 -20000 -7.78898e-05 0.000176207 
-20000 -0.000152774 0.000303832 -20000 0.000899416 -0.000263216 -20000 0.00113295 -0.000500639 
-20000 -0.000193366 -8.1898e-05 -20000 7.631e-06 -0.000493303 -20000 0.0005981 -0.000571864 
-20000 0.000198978 -0.000468983 -20000 4.50087e-05 1.44377e-05 -20000 0.000115786 2.16098e-05 
-20000 0.000107442 4.12825e-05 -20000 0.000175617 7.4288e-05 -20000 0.000240898 5.39275e-05 
-20000 0.000166151 2.55816e-05 -20000 0.000351867 8.69298e-05 -20000 0.000316308 5.73898e-05 
-20000 0.000184307 2.66772e-05 -20000 0.000216746 9.45212e-05 -20000 0.000191355 2.99236e-05 
-20000 0.000339229 5.72993e-05 -20000 0.000417865 8.39354e-05 -20000 0.000414682 0.000103545 
-20000 0.000203095 8.95112e-05 -20000 0.000340514 5.81147e-05 -20000 0.000437684 8.67661e-05 
-20000 0.000171719 6.6128e-05 -20000 0.000193624 3.9257e-05 -20000 0.00045385 8.61599e-05 
-20000 0.000393548 0.000103967 -20000 0.000441838 9.44685e-05 -20000 0.000184865 6.04252e-05 
-20000 0.000447514 8.24497e-05 -20000 0.000330464 7.05439e-05 -20000 0.000312018 8.27998e-05 
-20000 0.000450146 7.92205e-05 -20000 0.000161542 3.95292e-05 -20000 0.000220417 6.49187e-05 
-20000 0.000473906 0.000109191 -20000 0.000262502 4.87903e-05 -20000 0.000289012 7.93521e-05 
-20000 0.00040378 7.61e-05 -20000 0.000434548 7.15461e-05 -20000 8.92617e-05 3.0954e-05 
-20000 0.00039809 8.95385e-05 -20000 0.000256115 4.29245e-06 -20000 0.000156209 6.21032e-05 
-20000 0.000337446 8.93277e-05 -20000 0.000463751 9.82175e-05 -20000 0.000439807 9.47958e-05 
-20000 0.00018496 4.56889e-05 -20000 0.000438088 7.14414e-05 -20000 0.000329675 9.29801e-05 
-20000 2.78893e-05 4.25559e-05 -20000 0.000436955 9.89214e-05 -20000 0.000189119 8.15084e-05 
-20000 0.000335393 9.50155e-05 -20000 0.00040098 9.04519e-05 -20000 0.000207602 -2.37449e-05 
-20000 2.05467e-05 6.48586e-05 -20000 0.000459061 8.1416e-05 -20000 0.000244146 3.20742e-05 
-20000 0.000162159 0.000100523 -20000 1.23288e-05 8.3866e-05 -20000 0.000407366 8.57718e-05 
-20000 0.000384289 8.54769e-05 -20000 0.00028409 3.42168e-05 -20000 0.000290284 9.38974e-05 
-20000 0.000128035 -3.09121e-05 -20000 6.1946e-05 0.000114711 -20000 0.000234599 1.93604e-05 
-20000 -1.57022e-05 0.000135211 -20000 0.000109723 -3.34378e-05 -20000 0.000279283 9.24882e-05 
-20000 0.000243588 8.79466e-05 -20000 -9.67674e-05 0.000200296 -20000 0.000137201 0.000122204 
-20000 -4.05183e-05 0.000132935 -20000 0.000104011 -4.53099e-05 -20000 8.96858e-05 2.16992e-05 
-20000 9.28835e-05 -6.36881e-05 -20000 -0.000198514 0.000297358 -20000 -0.000173862 0.000252871 
-20000 -8.09498e-05 4.74967e-05 -20000 -0.000529538 0.000219415 -20000 5.68278e-05 -0.000102394 
-20000 -0.000339291 0.000632667 -20000 -0.000427372 -5.21776e-05 -20000 -0.000696974 0.000753452 
-20000 -0.000724763 0.000311096 -20000 1.89107e-05 4.66171e-06 -20000 5.48743e-05 8.06245e-06 
-20000 8.37359e-05 1.06483e-05 -20000 9.53975e-05 1.19533e-05 -20000 0.000100531 1.4129e-05 
-20000 0.000102199 1.84255e-05 -20000 8.86847e-05 1.82797e-05 -20000 6.34597e-05 1.91474e-05 
-20000 3.33814e-05 3.15686e-05 -20000 0.000135533 3.03393e-05 -20000 1.5717e-05 4.04885e-05 
-20000 7.61498e-06 5.67395e-05 -20000 -1.83122e-05 8.18897e-05 -20000 0.000160314 -2.20865e-05 
-20000 -4.47427e-05 0.000103744 -20000 7.52219e-05 -3.93617e-05 -20000 -6.83122e-05 0.000173808 
-20000 3.25956e-05 -4.27981e-05 -20000 -0.000112265 0.000264703 -20000 6.51506e-05 -4.87776e-05 
-20000 -0.000170575 0.000414324 -20000 0.000176207 -7.78898e-05 -20000 -0.000263216 0.000899416 
-20000 0.000303832 -0.000152774 -20000 -8.1898e-05 -0.000193366 -20000 -0.000500639 0.00113295 
-20000 -0.000571864 0.0005981 -20000 -0.000493303 7.631e-06 -20000 -0.000468983 0.000198978 
-20000 2.23377e-05 2.23378e-05 -20000 2.80799e-05 5.93641e-05 -20000 5.93641e-05 2.808e-05 
-20000 3.09064e-05 8.6654e-05 -20000 6.49394e-05 6.49394e-05 -20000 8.6654e-05 3.09064e-05 
-20000 3.26785e-05 9.8008e-05 -20000 6.60972e-05 8.93071e-05 -20000 8.93071e-05 6.60972e-05 
-20000 9.8008e-05 3.26786e-05 -20000 3.72342e-05 0.000105385 -20000 6.97468e-05 0.000102595 
-20000 9.14615e-05 9.14615e-05 -20000 0.000102595 6.97468e-05 -20000 0.000105385 3.72342e-05 
-20000 7.61484e-05 0.000110169 -20000 4.06993e-05 0.000105312 -20000 9.86077e-05 0.000108059 
-20000 0.000110169 7.61484e-05 -20000 0.000108059 9.86077e-05 -20000 0.000105312 4.06993e-05 
-20000 7.44358e-05 0.000102044 -20000 0.000116405 0.000116405 -20000 3.60413e-05 8.92263e-05 
-20000 0.000110074 0.00010527 -20000 0.00010527 0.000110074 -20000 0.000102044 7.44358e-05 
-20000 8.92263e-05 3.60413e-05 -20000 6.51481e-05 8.54617e-05 -20000 9.80792e-05 9.4312e-05 
-20000 0.000109641 0.000118166 -20000 0.000118166 0.000109641 -20000 9.4312e-05 9.80792e-05 
-20000 3.72956e-05 7.34264e-05 -20000 8.54617e-05 6.51481e-05 -20000 7.34264e-05 3.72956e-05 
-20000 0.000103813 8.63492e-05 -20000 9.74821e-05 9.74821e-05 -20000 8.95756e-05 8.07308e-05 
-20000 8.07308e-05 8.95756e-05 -20000 8.63492e-05 0.000103813 -20000 6.59404e-05 8.71149e-05 
-20000 8.71149e-05 6.59404e-05 -20000 5.63743e-05 4.71573e-05 -20000 4.71573e-05 5.63743e-05 
-20000 9.2344e-05 9.38261e-05 -20000 7.28418e-05 7.91624e-05 -20000 8.55476e-05 6.57161e-05 
-20000 7.97262e-05 9.66962e-05 -20000 9.66962e-05 7.97262e-05 -20000 7.91624e-05 7.28418e-05 
-20000 9.38261e-05 9.2344e-05 -20000 6.57161e-05 8.55476e-05 -20000 6.53905e-05 6.53905e-05 
-20000 9.80893e-05 0.000102073 -20000 0.000102073 9.80893e-05 -20000 0.00010055 7.61407e-05 
-20000 7.89913e-05 7.65234e-05 -20000 7.65234e-05 7.89913e-05 -20000 7.61407e-05 0.00010055 
-20000 7.64806e-05 6.1753e-05 -20000 9.15366e-05 7.59168e-05 -20000 9.4407e-05 7.79627e-05 
-20000 7.59168e-05 9.15366e-05 -20000 7.79627e-05 9.4407e-05 -20000 6.1753e-05 7.64806e-05 
-20000 4.71139e-05 6.25388e-05 -20000 5.58462e-05 5.58462e-05 -20000 6.25388e-05 4.71139e-05 
-20000 4.22455e-05 6.86796e-05 -20000 6.86796e-05 4.22455e-05 -20000 3.29809e-05 -4.40398e-06 
-20000 2.53795e-05 1.87533e-05 -20000 -4.40398e-06 3.29809e-05 -20000 1.87533e-05 2.53795e-05 
-20000 -1.35806e-05 -1.35806e-05 -20000 -4.25971e-06 -2.6414e-05 -20000 -2.6414e-05 -4.2597e-06 
-20000 -5.46928e-05 -2.97552e-05 -20000 -2.97552e-05 -5.46928e-05 -20000 2.46369e-05 6.93703e-05 
-20000 -6.56529e-05 -6.56529e-05 -20000 3.60184e-05 9.96115e-05 -20000 6.93703e-05 2.46369e-05 
-20000 4.3389e-05 0.000106611 -20000 9.96115e-05 3.60184e-05 -20000 4.40993e-05 8.55036e-05 
-20000 0.000106611 4.3389e-05 -20000 3.15179e-05 2.28458e-05 -20000 8.55036e-05 4.40993e-05 
-20000 1.17419e-05 -3.46273e-05 -20000 2.28458e-05 3.15179e-05 -20000 -8.77991e-06 -5.27672e-05 
-20000 -3.46273e-05 1.17419e-05 -20000 -2.33957e-05 -8.51142e-05 -20000 -5.27672e-05 -8.77991e-06 
-20000 -4.93418e-05 -9.5342e-05 -20000 -6.98009e-05 -6.98009e-05 -20000 2.17986e-05 0.000101946 
-20000 4.21473e-05 0.000157126 -20000 -1.28114e-06 0.000159448 -20000 -2.48649e-05 0.00017108 
-20000 2.09379e-05 0.000276518 -20000 5.72043e-05 0.000177797 -20000 5.98303e-05 0.000163826 
-20000 -1.26859e-05 0.000302167 -20000 -2.9715e-05 0.000209114 -20000 3.65836e-05 0.000315047 
-20000 3.55519e-05 0.000268981 -20000 4.63007e-05 8.7591e-05 -20000 -1.37218e-05 0.000312655 
-20000 -1.9219e-05 0.000373231 -20000 -4.78573e-05 0.000219667 -20000 1.19092e-05 0.000134912 
-20000 3.38708e-05 5.96787e-06 -20000 -3.30886e-05 0.000348604 -20000 -2.93145e-05 0.000357445 
-20000 -3.10606e-05 0.000345277 -20000 -5.3609e-05 0.000107245 -20000 -3.68218e-05 0.000531251 
-20000 3.5335e-06 0.000541016 -20000 -3.88629e-05 0.000288626 -20000 -6.24196e-05 -8.12362e-05 
-20000 3.67367e-05 -2.65592e-05 -20000 -5.44002e-05 0.000285881 -20000 -1.25479e-05 3.39987e-06 
-20000 -7.93011e-05 0.000416534 -20000 -2.39836e-05 1.71186e-06 -20000 -0.000153151 0.000503379 
-20000 -0.000121144 0.00113887 -20000 4.46379e-05 -4.50594e-05 -20000 0.000106798 -0.000329968 
-20000 -3.00115e-05 0.000103565 -20000 -8.2549e-06 0.000261771 -20000 -7.26781e-05 0.000186545 
-20000 -2.15954e-05 0.000418142 -20000 -7.23416e-05 -1.99835e-05 -20000 -5.30035e-05 0.0005782 
-20000 0.000203571 0.000273664 -20000 1.01059e-05 -4.26917e-05 -20000 -0.000284859 0.000751814 
-20000 -0.000135089 -0.000143369 -20000 -1.0545e-05 7.00739e-05 -20000 -0.000124101 -1.09601e-05 
-20000 -1.83647e-05 0.000181308 -20000 2.87236e-05 -0.000274089 -20000 -0.000147553 0.00044561 
-20000 4.46384e-05 0.000454834 -20000 -0.000110773 0.000363595 -20000 2.82409e-05 7.60266e-05 
-20000 8.40982e-06 0.000135619 -20000 -7.38786e-05 0.000151213 -20000 -8.71379e-05 8.77714e-05 
-20000 -2.05965e-05 -7.29582e-05 -20000 -8.16324e-05 -2.73016e-05 -20000 -7.40988e-05 0.000254046 
-20000 -7.90891e-05 0.000196947 -20000 3.85502e-05 3.48027e-05 -20000 -6.2017e-05 -0.000130489 
-20000 -8.41877e-05 0.000121463 -20000 -5.99896e-05 0.000104724 -20000 -5.99941e-05 -1.36928e-05 
-20000 -1.26512e-05 5.34979e-05 -20000 -9.89114e-05 4.75584e-05 -20000 -4.62283e-05 -6.15679e-05 
-20000 -7.10719e-05 -3.43865e-05 -20000 -1.05448e-05 6.53879e-05 -20000 -0.000120131 -5.30621e-05 
-20000 -9.61855e-05 5.42301e-05 -20000 -1.98467e-05 4.20416e-05 -20000 -0.000116312 -3.02088e-05 
-20000 -7.57604e-05 -4.22898e-05 -20000 -9.06906e-05 -0.000118476 -20000 -0.000138454 -0.000213066 
-20000 -4.0593e-05 6.75595e-05 -20000 -6.57353e-05 -8.51271e-05 -20000 -0.000213095 -0.000324452 
-20000 -3.71082e-05 -6.70263e-05 -20000 -0.000192515 -0.000316228 -20000 -2.42954e-05 -2.42954e-05 
-20000 -0.000277636 0.000272321 -20000 -3.30798e-05 0.00019606 -20000 5.44564e-05 5.44564e-05 
-20000 -3.68727e-05 -3.68727e-05 -20000 7.72573e-06 5.49319e-05 -20000 -2.00558e-06 3.7127e-05 
-20000 -0.000102484 -0.000102483 -20000 8.60284e-06 3.31098e-05 -20000 -3.29198e-05 -3.29198e-05 
-20000 -1.01532e-05 -1.01532e-05 -20000 2.31734e-05 2.0444e-05 -20000 -3.88364e-05 -3.88364e-05 
-20000 1.76573e-05 0.00011056 -20000 6.83366e-05 0.000112709 -20000 -0.000274979 -0.000274979 
-20000 -5.74055e-05 -0.000128083 -20000 -0.000358124 -0.000358124 -20000 -0.000245977 -0.000245977 
-20000 7.76752e-05 7.76752e-05 -20000 -1.09555e-05 0.000108039 -20000 0.000108038 -1.09554e-05 
-20000 -4.48633e-05 5.96886e-05 -20000 2.03504e-05 2.03504e-05 -20000 5.96883e-05 -4.48633e-05 
-20000 3.84205e-05 -1.30159e-05 -20000 -4.25792e-05 2.55336e-05 -20000 2.55336e-05 -4.25792e-05 
-20000 -1.30159e-05 3.84205e-05 -20000 4.71256e-05 4.71257e-05 -20000 7.78755e-06 4.35999e-05 
-20000 4.35998e-05 7.7876e-06 -20000 -3.15051e-05 3.88318e-05 -20000 3.88318e-05 -3.1505e-05 
-20000 5.96036e-05 4.17964e-05 -20000 -3.93533e-05 9.82102e-05 -20000 9.82102e-05 -3.93533e-05 
-20000 4.17964e-05 5.96035e-05 -20000 8.01536e-05 8.03458e-05 -20000 8.03458e-05 8.01537e-05 
-20000 6.85836e-05 6.6756e-05 -20000 0.000217226 -0.000114957 -20000 9.96278e-05 0.000100006 
-20000 6.6756e-05 6.85836e-05 -20000 -0.000114957 0.000217226 -20000 0.000100006 9.96277e-05 
-20000 9.64806e-05 9.64806e-05 -20000 8.64382e-05 9.44234e-05 -20000 8.28583e-05 5.69391e-05 
-20000 3.84055e-05 -0.000231459 -20000 -0.000231459 3.84054e-05 -20000 5.69391e-05 8.28583e-05 
-20000 0.000113353 0.000106988 -20000 0.000106988 0.000113353 -20000 9.44234e-05 8.64383e-05 
-20000 -0.000246882 -6.769e-06 -20000 6.63915e-05 -9.9112e-05 -20000 -6.769e-06 -0.000246882 
-20000 0.000129509 4.95307e-05 -20000 4.95307e-05 0.000129509 -20000 8.14224e-05 9.62586e-05 
-20000 -9.9112e-05 6.63915e-05 -20000 8.45695e-05 8.45695e-05 -20000 9.62586e-05 8.14223e-05 
-20000 -4.1235e-07 -1.79614e-05 -20000 -3.64952e-05 7.73163e-05 -20000 7.73163e-05 -3.64952e-05 
-20000 -1.79614e-05 -4.12375e-07 -20000 5.13942e-05 5.31864e-05 -20000 9.14819e-05 7.03241e-05 
-20000 5.31864e-05 5.13941e-05 -20000 7.03241e-05 9.14819e-05 -20000 -2.30508e-05 3.16263e-05 
-20000 -3.14912e-05 3.1802e-05 -20000 3.1802e-05 -3.14913e-05 -20000 4.62194e-05 -8.96045e-08 
-20000 3.16263e-05 -2.30508e-05 -20000 5.79085e-05 5.79086e-05 -20000 -8.9602e-08 4.62193e-05 
-20000 -3.05653e-05 3.64691e-05 -20000 4.58795e-06 -4.14755e-05 -20000 -3.18008e-06 -5.14203e-05 
-20000 3.64691e-05 -3.05654e-05 -20000 -4.14755e-05 4.58798e-06 -20000 -5.14203e-05 -3.18008e-06 
-20000 -1.79452e-05 1.42255e-05 -20000 -6.34851e-05 -1.91199e-05 -20000 1.42255e-05 -1.79451e-05 
-20000 -1.91199e-05 -6.34851e-05 -20000 -7.7118e-05 -7.7118e-05 -20000 1.36531e-05 -5.70237e-07 
-20000 -5.7034e-07 1.36531e-05 -20000 -3.55291e-05 -4.23552e-05 -20000 -4.23552e-05 -3.55291e-05 
-20000 7.66874e-05 1.9355e-05 -20000 1.9355e-05 7.66874e-05 -20000 9.03199e-05 9.03199e-05 
-20000 0.000134227 0.000169006 -20000 0.000169006 0.000134227 -20000 6.05094e-05 6.05094e-05 
-20000 0.000272321 -0.000277636 -20000 0.00019606 -3.30798e-05 -20000 5.49319e-05 7.72572e-06 
-20000 3.7127e-05 -2.0056e-06 -20000 3.31098e-05 8.60293e-06 -20000 2.04439e-05 2.31736e-05 
-20000 0.00011056 1.76574e-05 -20000 0.000112709 6.83366e-05 -20000 -0.000128083 -5.74055e-05 
-20000 -8.51142e-05 -2.33957e-05 -20000 -9.5342e-05 -4.93418e-05 -20000 0.000101946 2.17986e-05 
-20000 0.000157126 4.21473e-05 -20000 0.000159448 -1.28114e-06 -20000 0.000177797 5.72043e-05 
-20000 0.00017108 -2.48649e-05 -20000 0.000276518 2.09379e-05 -20000 0.000302167 -1.26859e-05 
-20000 0.000209114 -2.9715e-05 -20000 0.000163826 5.98303e-05 -20000 0.000315047 3.65836e-05 
-20000 0.000268981 3.55519e-05 -20000 0.000312655 -1.37218e-05 -20000 8.7591e-05 4.63007e-05 
-20000 0.000219667 -4.78573e-05 -20000 0.000373231 -1.9219e-05 -20000 5.96787e-06 3.38708e-05 
-20000 0.000134912 1.19092e-05 -20000 0.000345277 -3.10606e-05 -20000 0.000357445 -2.93145e-05 
-20000 0.000348604 -3.30886e-05 -20000 0.000107245 -5.3609e-05 -20000 -2.65592e-05 3.67367e-05 
-20000 3.39987e-06 -1.25479e-05 -20000 0.000285881 -5.44002e-05 -20000 0.000288626 -3.88629e-05 
-20000 -8.12362e-05 -6.24196e-05 -20000 0.000541016 3.5335e-06 -20000 0.000531251 -3.68218e-05 
-20000 1.71189e-06 -2.39836e-05 -20000 -4.50594e-05 4.46379e-05 -20000 0.000103565 -3.00115e-05 
-20000 0.00113887 -0.000121144 -20000 0.000416534 -7.93011e-05 -20000 -0.000329968 0.000106798 
-20000 0.000503379 -0.000153151 -20000 0.000261771 -8.25487e-06 -20000 0.000186545 -7.26781e-05 
-20000 -4.26917e-05 1.01059e-05 -20000 7.00739e-05 -1.0545e-05 -20000 0.000418142 -2.15954e-05 
-20000 -1.99835e-05 -7.23416e-05 -20000 0.000751814 -0.000284859 -20000 0.000273664 0.000203571 
-20000 -0.000143369 -0.000135089 -20000 0.0005782 -5.30035e-05 -20000 -1.09601e-05 -0.000124101 
-20000 7.60266e-05 2.82409e-05 -20000 0.000135619 8.40982e-06 -20000 0.000181308 -1.83647e-05 
-20000 0.000363595 -0.000110773 -20000 0.00044561 -0.000147553 -20000 -0.000274089 2.87236e-05 
-20000 0.000454834 4.46384e-05 -20000 -2.73016e-05 -8.16326e-05 -20000 3.48027e-05 3.85502e-05 
-20000 8.77714e-05 -8.71379e-05 -20000 0.000196947 -7.90891e-05 -20000 0.000151213 -7.38786e-05 
-20000 0.000254046 -7.40988e-05 -20000 -7.29582e-05 -2.05967e-05 -20000 -1.36928e-05 -5.99941e-05 
-20000 5.34979e-05 -1.26512e-05 -20000 -0.000130489 -6.20172e-05 -20000 4.75585e-05 -9.89114e-05 
-20000 0.000104724 -5.99896e-05 -20000 0.000121463 -8.41877e-05 -20000 -5.30621e-05 -0.000120131 
-20000 -6.1568e-05 -4.62283e-05 -20000 6.53879e-05 -1.05447e-05 -20000 -3.43865e-05 -7.10719e-05 
-20000 5.42301e-05 -9.61855e-05 -20000 -3.02088e-05 -0.000116312 -20000 -0.000118476 -9.06906e-05 
-20000 -4.22898e-05 -7.57604e-05 -20000 4.20416e-05 -1.98467e-05 -20000 -8.51271e-05 -6.57353e-05 
-20000 -0.000213066 -0.000138454 -20000 6.75594e-05 -4.0593e-05 -20000 -0.000324452 -0.000213095 
-20000 -6.70263e-05 -3.71082e-05 -20000 -0.000316228 -0.000192515 -20000 5.24463e-05 5.24463e-05 
-20000 0.000124144 6.33824e-05 -20000 6.33824e-05 0.000124144 -20000 0.000169952 6.61341e-05 
-20000 0.000132259 0.000132259 -20000 6.6134e-05 0.000169952 -20000 0.000187564 6.81436e-05 
-20000 0.000172179 0.000131475 -20000 0.000131475 0.000172179 -20000 6.81435e-05 0.000187564 
-20000 0.00020079 7.92419e-05 -20000 0.0001985 0.000142994 -20000 0.000180686 0.000180686 
-20000 0.000142994 0.0001985 -20000 7.92419e-05 0.00020079 -20000 0.000200828 8.96644e-05 
-20000 0.000216021 0.000165121 -20000 0.00022121 0.00020574 -20000 0.00020574 0.00022121 
-20000 0.000165121 0.000216021 -20000 8.96644e-05 0.000200828 -20000 0.000193729 0.000164243 
-20000 0.000155315 7.69453e-05 -20000 0.000222039 0.000223841 -20000 0.000241656 0.000241656 